REMARK  Name = 1066
REMARK  2 active torsions:
REMARK  status: ('A' for Active; 'I' for Inactive)
REMARK    1  A    between atoms: C_6  and  C_11
REMARK    2  A    between atoms: CA_7  and  C_12
REMARK                            x       y       z     vdW  Elec       q    Type
REMARK                         _______ _______ _______ _____ _____    ______ ____
ROOT
ATOM      1  N   UNL     1      -1.709   0.900  -0.009  0.00  0.00    -0.248 NA
ATOM      2  C   UNL     1       0.057  -0.750   0.030  0.00  0.00    +0.091 A 
ATOM      3  CA  UNL     1      -0.401   0.557   0.009  0.00  0.00    +0.161 A 
ATOM      4  C   UNL     1      -0.887  -1.771   0.032  0.00  0.00    -0.044 A 
ATOM      5  C   UNL     1      -2.242  -1.458   0.013  0.00  0.00    -0.043 A 
ATOM      6  C   UNL     1      -2.597  -0.119  -0.006  0.00  0.00    +0.029 A 
ENDROOT
BRANCH   2   9
ATOM      7  O   UNL     1       1.994  -1.214  -1.201  0.00  0.00    -0.477 OA
ATOM      8  O   UNL     1       2.159  -1.229   1.066  0.00  0.00    -0.245 OA
ATOM      9  C   UNL     1       1.474  -1.079   0.050  0.00  0.00    +0.339 C 
ENDBRANCH   2   9
BRANCH   3  12
ATOM     10  O   UNL     1      -0.123   2.882  -0.015  0.00  0.00    -0.476 OA
ATOM     11  OXT UNL     1       1.753   1.598   0.023  0.00  0.00    -0.243 OA
ATOM     12  C   UNL     1       0.521   1.683   0.008  0.00  0.00    +0.356 C 
ENDBRANCH   3  12
TORSDOF 2
